   24
Geometry Step: 0
    C     -1.39791926      0.00000000      0.00000000
    C     -0.69897262      1.21066698      0.00000000
    C      0.69897264      1.21066698      0.00000000
    C      1.39791931      0.00000000      0.00000000
    C      0.69897264     -1.21066698      0.00000000
    C     -0.69897262     -1.21066698      0.00000000
    H     -2.49452575      0.00000000      0.00000000
    H     -1.24742707      2.16028076      0.00000000
    H      1.24742708      2.16028077      0.00000000
    H      2.49452579      0.00000000      0.00000000
    H      1.24742708     -2.16028077      0.00000000
    H     -1.24742707     -2.16028076      0.00000000
    C      8.66717066     -0.83570718      0.03048087
    C      8.68902116      0.45481222     -0.51596525
    C      9.77181409      1.30650808     -0.47576155
    C     10.98410117      0.79752216      0.05424748
    C     10.99498107     -0.52478699      0.45457828
    C      9.86994906     -1.34189011      0.49802874
    H      7.78151266     -1.42900442      0.10680450
    H      7.74298021      0.83147071     -0.90805175
    H      9.65337831      2.40970341     -0.76065589
    H     11.87829375      1.40733057      0.14400111
    H     11.92809582     -0.89671255      0.85297291
    H      9.92179162     -2.41011357      0.88505977
