2352
	Energy:     532.2938354
C -1.576330148621952532e+01 -2.649042317459296214e+01 -2.930709270736881790e-03
C -1.517248384967353481e+01 -2.785507102486283770e+01 -2.660709270736881949e-03
C -1.591733323646553089e+01 -2.904572219795913668e+01 -2.820709270736881935e-03
C -1.729014656028219576e+01 -2.899189623627293244e+01 -2.540709270736881634e-03
C -1.791997824490203328e+01 -2.777283900744856027e+01 -2.700709270736881620e-03
C -1.717647142665589755e+01 -2.659029849460279848e+01 -2.740709270736881725e-03
O -1.524915098007466341e+01 -3.024276851483429596e+01 -3.550709270736881681e-03
O -1.927341713323478700e+01 -2.766827346604710414e+01 -3.270709270736881814e-03
H -1.418945885897086434e+01 -2.819846629063395937e+01 -2.720709270736881673e-03
H -1.786594338536538373e+01 -2.990594150075610003e+01 -2.610709270736881818e-03
H -1.778838448072977130e+01 -2.582560329993110670e+01 -2.750709270736881751e-03
C -2.155553611742377740e+01 -2.826099652254502104e+01 -4.370709270736882097e-03
C -1.478724983414177530e+01 -3.260905554412426710e+01 1.829290729263118552e-03
C -2.252914357053256822e+01 -2.943074563844594493e+01 -3.810709270736881930e-03
C -1.540852015031435585e+01 -3.401553349569080353e+01 -5.890709270736881747e-03
C -2.396238955004070093e+01 -2.892089650867933415e+01 -9.807092707368818794e-04
C -1.433465530273116784e+01 -3.511513885350110797e+01 -6.200709270736881260e-03
C -2.494456956173895179e+01 -3.008205888251878690e+01 -4.290709270736881888e-03
C -1.494605578106768107e+01 -3.652161576123542375e+01 1.199290729263118201e-03
C -2.637705995843316842e+01 -2.956893321576760769e+01 -6.907092707368819862e-04
C -1.386773519697046098e+01 -3.761326661641405167e+01 -7.590709270736881870e-03
C -2.735710896399224978e+01 -3.073257206145927611e+01 -4.780709270736881872e-03
C -1.448206754416378317e+01 -3.901392824728424102e+01 1.579290729263118330e-03
C -2.878873002430316319e+01 -3.023277145584314241e+01 -2.370709270736882056e-03
C -1.341982704021830131e+01 -4.010674453041588094e+01 -3.370709270736882077e-03
C -2.012592499444364336e+01 -2.875336727944625181e+01 -1.870709270736881829e-03
C -1.584297866042775027e+01 -3.149641092132288023e+01 -1.370709270736881818e-03
C -1.157367865303241317e+01 -2.554434955936146423e+01 -2.560709270736881687e-03
C -1.282834859182066012e+01 -2.591008492653435979e+01 -2.290709270736881846e-03
C -1.364868862821649742e+01 -2.484858324062609825e+01 3.839290729263118186e-03
C -1.158602902322456885e+01 -2.418670703971348246e+01 1.429290729263118370e-03
N -1.286123238634797339e+01 -2.371172453447906747e+01 -3.060070927073688107e-02
C -1.034195048579003284e+01 -2.343919210260870045e+01 -2.970709270736881895e-03
C -1.030728836788024694e+01 -2.210035896260132660e+01 -7.580709270736881410e-03
N -1.138233839022904448e+01 -2.127313191351029431e+01 9.139290729263118210e-03
C -1.085212623007168986e+01 -2.002229820604903665e+01 -8.070709270736883129e-03
C -9.126677182723435422e+00 -2.137835112636779300e+01 -4.840709270736882029e-03
C -9.472376911212251116e+00 -2.006141519860867106e+01 -4.640709270736882372e-03
C -1.152947676071507388e+01 -1.889453494949333745e+01 -2.150709270736881912e-03
C -1.297885199775334897e+01 -1.882876461909855692e+01 1.459290729263118015e-03
N -1.382190813089048831e+01 -1.988705655688315943e+01 -2.960070927073688019e-02
C -1.498357011102696035e+01 -1.794607003431134018e+01 -2.330709270736881951e-03
C -1.365681023551848305e+01 -1.763051997498518375e+01 -2.680709270736882002e-03
C -1.625816727400721362e+01 -2.146368040868805593e+01 -7.770709270736881474e-03
N -1.520304697565508079e+01 -2.233962796476964385e+01 9.359290729263117919e-03
C -1.577054096942129391e+01 -2.359692635959851259e+01 -7.720709270736881777e-03
C -1.714902499402692015e+01 -2.343542293670262922e+01 -4.340709270736881585e-03
C -1.744098114859209403e+01 -2.214144027367675704e+01 -4.360709270736881638e-03
C -1.502046277646470784e+01 -2.497734825411156123e+01 -3.280709270736881841e-03
C -1.622183374206481687e+01 -2.000766891541040948e+01 -3.430709270736881800e-03
C -1.506635428979454439e+01 -1.932970251537189199e+01 3.519290729263118214e-03
H -1.076136048429889946e+01 -2.627157054265705938e+01 -3.480709270736881931e-03
H -1.302384669249081028e+01 -2.684016650636183243e+01 -3.590709270736881786e-03
C -9.095444504143443964e+00 -2.420540771653161016e+01 -2.570709270736881713e-03
H -8.119855396481010956e+00 -2.176649783258543280e+01 -1.710709270736881843e-03
H -8.779321268716540061e+00 -1.922287317073834956e+01 -1.680709270736881764e-03
H -1.579747305218254638e+01 -1.723758116772394544e+01 -3.450709270736881853e-03
H -1.323202027080742837e+01 -1.662917714913542611e+01 -3.400709270736881722e-03
H -1.796377859245112063e+01 -2.402738319614140394e+01 -1.490709270736881916e-03
H -1.847612770745740818e+01 -2.178336302465178065e+01 -1.720709270736881869e-03
C -1.749365033229527100e+01 -1.928312450489123009e+01 -3.010709270736882000e-03
C -1.854817439482793162e+01 -1.869194574889638716e+01 -2.700709270736881620e-03
C -8.070919978314432086e+00 -2.484413968690325802e+01 -2.220709270736882096e-03
Zn -1.330638976523005823e+01 -2.182814492160711950e+01 3.471929072926311505e-02
H -1.994709408142250595e+01 -2.936698274416990273e+01 9.061192907292631160e-01
H -1.994587829482951591e+01 -2.937111800268180417e+01 -9.070607092707368979e-01
H -2.172060098570489117e+01 -2.764089460176154844e+01 8.996692907292630492e-01
H -2.171784997340574108e+01 -2.765061386260433096e+01 -9.147207092707368981e-01
H -2.235918047201226955e+01 -3.005117150447779650e+01 9.006392907292630756e-01
H -2.236099351355704457e+01 -3.004491950636864317e+01 -9.123307092707368948e-01
H -2.412955882031680233e+01 -2.829810600234888085e+01 -9.045907092707369257e-01
H -2.412703919380723150e+01 -2.830740352794723691e+01 9.087592907292630917e-01
H -2.477773581232960254e+01 -3.070481437816536641e+01 8.992792907292630478e-01
H -2.478013683844167758e+01 -3.069605974661349279e+01 -9.137007092707368772e-01
H -2.654567357517768045e+01 -2.894732544494396365e+01 -9.047307092707369547e-01
H -2.654358004813332883e+01 -2.895563370857209406e+01 9.085492907292630482e-01
H -2.719378305923046213e+01 -3.135632596880876122e+01 8.978092907292630764e-01
H -2.719635885246149698e+01 -3.134314234680147138e+01 -9.158607092707369279e-01
H -2.897757651917331145e+01 -2.963068209281198762e+01 9.089392907292630497e-01
H -2.948100432440354268e+01 -3.109806369874178600e+01 -1.495070927073688209e-02
H -2.897136729003176825e+01 -2.961026187064209836e+01 -9.012007092707369216e-01
H -1.647377012613586089e+01 -3.160181586897629558e+01 -9.075407092707369339e-01
H -1.646510430049602292e+01 -3.160046869935823111e+01 9.102792907292630575e-01
H -1.415089063723929108e+01 -3.249953499574345983e+01 -8.999007092707369537e-01
H -1.417782928464992054e+01 -3.250443859398207280e+01 9.206392907292630934e-01
H -1.604389185546140340e+01 -3.413164848567290477e+01 8.963992907292630541e-01
H -1.602454275975738085e+01 -3.412785177717250917e+01 -9.205907092707369399e-01
H -1.369836504331065008e+01 -3.500063496812352781e+01 8.958092907292630747e-01
H -1.371916008065372061e+01 -3.500470998001309653e+01 -9.214007092707369173e-01
H -1.558249558551640845e+01 -3.664034908348859432e+01 -8.999907092707368772e-01
H -1.556002713054464159e+01 -3.663633215292136924e+01 9.169992907292631168e-01
H -1.323164019316845064e+01 -3.750102239367576828e+01 8.945592907292631013e-01
H -1.325395112725889035e+01 -3.750533204795564757e+01 -9.235407092707369481e-01
H -1.511752538309027472e+01 -3.914151401234790484e+01 -8.984407092707369369e-01
H -1.509085715320941823e+01 -3.913462047080368933e+01 9.189092907292630841e-01
H -1.280010679938737361e+01 -4.004110250116288938e+01 -9.200807092707369295e-01
H -1.390911366656325754e+01 -4.110416786164488201e+01 2.214929072926311721e-02
H -1.276782998443643535e+01 -4.001200724181323665e+01 8.881092907292630345e-01
C -4.062079472826312099e-01 -3.082303016930728035e+01 -2.930709270736881790e-03
C 7.877790601050183028e-01 -3.170944105658782064e+01 -2.660709270736881949e-03
C 7.380461556980399962e-01 -3.311299991293095246e+01 -2.820709270736881935e-03
C -4.777580382240493861e-01 -3.375279192463590761e+01 -2.540709270736881634e-03
C -1.632736891625357956e+00 -3.301197323811685891e+01 -2.700709270736881620e-03
C -1.580111355560145370e+00 -3.161610970386508868e+01 -2.740709270736881725e-03
O 1.915232122528115255e+00 -3.381558130465602119e+01 -3.550709270736881681e-03
O -2.857132122092025384e+00 -3.359813626706910128e+01 -3.270709270736881814e-03
H 1.810801307494049439e+00 -3.151531758493358737e+01 -2.720709270736881673e-03
H -5.193900839229286248e-01 -3.483227675642879717e+01 -2.610709270736881818e-03
H -2.492391202631296210e+00 -3.125982076616444871e+01 -2.750709270736881751e-03
C -4.537143608609476075e+00 -3.525250898349955264e+01 -4.370709270736882097e-03
C 3.498393763588129701e+00 -3.563389541170029418e+01 1.829290729263118552e-03
C -4.795437838365090855e+00 -3.675234516047854072e+01 -3.810709270736881930e-03
C 3.663596862948750754e+00 -3.716257620570591769e+01 -5.890709270736881747e-03
C -6.291589831374349018e+00 -3.702742585175734291e+01 -9.807092707368818794e-04
C 5.143393780092047507e+00 -3.757792995591552909e+01 -6.200709270736881260e-03
C -6.561601485674604106e+00 -3.852411197127005948e+01 -4.290709270736881888e-03
C 5.317143887833823968e+00 -3.910167492701786074e+01 1.199290729263118201e-03
C -8.058737393264634008e+00 -3.879597730687682144e+01 -6.907092707368819862e-04
C 6.796822334675008292e+00 -3.950791200761695876e+01 -7.590709270736881870e-03
C -8.325665306186639469e+00 -4.029374261085574460e+01 -4.780709270736881872e-03
C 6.965125731074165216e+00 -4.102808673565335340e+01 1.579290729263118330e-03
C -9.815385815816769721e+00 -4.057671311972079309e+01 -2.370709270736882056e-03
C 8.431461133985559186e+00 -4.144337314654188731e+01 -3.370709270736882077e-03
C -3.052878680125260757e+00 -3.496410900556652734e+01 -1.870709270736881829e-03
C 2.027783469116245740e+00 -3.519818131611312850e+01 -1.370709270736881818e-03
C 2.749075050916991003e+00 -2.790889496807306713e+01 -2.560709270736881687e-03
C 1.845366694148156128e+00 -2.885296605650134083e+01 -2.290709270736881846e-03
C 6.041805399337825122e-01 -2.834384864854269637e+01 3.839290729263118186e-03
C 2.059558056760460332e+00 -2.673931724189608161e+01 1.429290729263118370e-03
N 7.177082966870305114e-01 -2.696557200757160189e+01 -3.060070927073688107e-02
C 2.763204205929360668e+00 -2.546991104793773886e+01 -2.970709270736881895e-03
C 2.123805910584518841e+00 -2.429311647830797938e+01 -7.580709270736881410e-03
N 7.791717563459226170e-01 -2.411424185027190603e+01 9.139290729263118210e-03
C 6.129321027069867256e-01 -2.276588200362190761e+01 -8.070709270736883129e-03
C 2.785241270805607350e+00 -2.307753375781989646e+01 -4.840709270736882029e-03
C 1.827388559973352145e+00 -2.210988365346846862e+01 -4.640709270736882372e-03
C -5.375522923749063153e-01 -2.212788563931168540e+01 -2.150709270736881912e-03
C -1.825633232463530931e+00 -2.279561448089365427e+01 1.459290729263118015e-03
N -2.026595291684271771e+00 -2.413365025020394938e+01 -2.960070927073688019e-02
C -4.003117338378904932e+00 -2.303353760332177202e+01 -2.330709270736881951e-03
C -3.011884611129762135e+00 -2.209688329802539286e+01 -2.680709270736882002e-03
C -3.348145673923013987e+00 -2.671717612963783139e+01 -7.770709270736881474e-03
N -1.996410913460657355e+00 -2.694820881641130939e+01 9.359290729263117919e-03
C -1.859225931142855615e+00 -2.832080816335361106e+01 -7.720709270736881777e-03
C -3.133779826610281205e+00 -2.887018410863044693e+01 -4.340709270736881585e-03
C -4.033612604767874643e+00 -2.789554032767598812e+01 -4.360709270736881638e-03
C -5.194282139612020899e-01 -2.914124949546386034e+01 -3.280709270736881841e-03
C -4.044685658890513125e+00 -2.543806642228606663e+01 -3.430709270736881800e-03
C -3.382994299692784423e+00 -2.427319057080529063e+01 3.519290729263118214e-03
H 3.816173712643672999e+00 -2.813252772940539614e+01 -3.480709270736881931e-03
H 2.141101162489929877e+00 -2.975618938255897916e+01 -3.590709270736881786e-03
C 4.225817858966022911e+00 -2.551022024354797679e+01 -2.570709270736881713e-03
H 3.851247867883992981e+00 -2.291026777267841652e+01 -1.710709270736881843e-03
H 2.008321338675619572e+00 -2.103715713394399955e+01 -1.680709270736881764e-03
H -5.062222394928209468e+00 -2.282691971713644108e+01 -3.450709270736881853e-03
H -3.144677123342167313e+00 -2.101729999058668241e+01 -3.400709270736881722e-03
H -3.543397010951037984e+00 -2.979021353054735499e+01 -1.490709270736881916e-03
H -5.109114445897771972e+00 -2.810300961293577870e+01 -1.720709270736881869e-03
C -5.508383340244174420e+00 -2.544650085172166598e+01 -3.010709270736882000e-03
C -6.717217345296852216e+00 -2.546178706211878051e+01 -2.700709270736881620e-03
C 5.432448110319976209e+00 -2.555111609318460708e+01 -2.220709270736882096e-03
Zn -6.095991085429250944e-01 -2.555692290221508500e+01 3.471929072926311505e-02
H -2.591198834105162163e+00 -3.540610012966163112e+01 9.061192907292631160e-01
H -2.588078302774105666e+00 -3.540907347528766280e+01 -9.070607092707368979e-01
H -4.990144938204981173e+00 -3.479801740130610455e+01 8.996692907292630492e-01
H -4.982902861246412130e+00 -3.480505902195238122e+01 -9.147207092707368981e-01
H -4.338032544324663675e+00 -3.720466817236693657e+01 9.006392907292630756e-01
H -4.342728683415144175e+00 -3.720016030395239426e+01 -9.123307092707368948e-01
H -6.747757919330783949e+00 -3.657165808717743261e+01 -9.045907092707369257e-01
H -6.740927095966267046e+00 -3.657845016728317233e+01 9.087592907292630917e-01
H -6.105741472654205637e+00 -3.898001717614169337e+01 8.992792907292630478e-01
H -6.112198138038365869e+00 -3.897363595587304985e+01 -9.137007092707368772e-01
H -8.515564954201186865e+00 -3.834195599452598913e+01 -9.047307092707369547e-01
H -8.509597774783179247e+00 -3.834810439836710572e+01 9.085492907292630482e-01
H -7.872343969892122928e+00 -4.075226638794932654e+01 8.978092907292630764e-01
H -7.881166483268724932e+00 -4.074213693299263639e+01 -9.158607092707369279e-01
H -1.027997635930554843e+01 -4.014971168342249541e+01 9.089392907292630497e-01
H -9.982266824641463643e+00 -4.167221533381881216e+01 -1.495070927073688209e-02
H -1.028480912021599103e+01 -4.012892263770167034e+01 -9.012007092707369216e-01
H 1.534204509149313722e+00 -3.560486041131960633e+01 -9.075407092707369339e-01
H 1.541035749489150675e+00 -3.559936081538723585e+01 9.102792907292630575e-01
H 3.994736719847137962e+00 -3.522086823611488171e+01 -8.999007092707369537e-01
H 3.973858965965243684e+00 -3.523858420046478557e+01 9.206392907292630934e-01
H 3.171406320436615189e+00 -3.758082058936410164e+01 8.963992907292630541e-01
H 3.186264774606357264e+00 -3.756785799549998472e+01 -9.205907092707369399e-01
H 5.637185366242018603e+00 -3.716062155263624334e+01 8.958092907292630747e-01
H 5.621213841575052328e+00 -3.717454813512487277e+01 -9.214007092707369173e-01
H 4.825337510328219892e+00 -3.952272090258920656e+01 -8.999907092707368772e-01
H 4.842787297833934801e+00 -3.950800791118685851e+01 9.169992907292631168e-01
H 7.291574655818767070e+00 -3.909265815739656347e+01 8.945592907292631013e-01
H 7.274407647254225395e+00 -3.910754589452968588e+01 -9.235407092707369481e-01
H 6.478595982061699843e+00 -4.145630816882299285e+01 -8.984407092707369369e-01
H 6.498244575840370629e+00 -4.143700407178323530e+01 9.189092907292630841e-01
H 8.935333591158048705e+00 -4.107666536123736023e+01 -9.200807092707369295e-01
H 8.506438151453339813e+00 -4.255181040288599092e+01 2.214929072926311721e-02
H 8.948738503183989224e+00 -4.103532972003540635e+01 8.881092907292630345e-01
C 1.505972868308775148e+01 -2.689663112187558980e+01 -2.930709270736881790e-03
C 1.653695720691428406e+01 -2.706729196475781762e+01 -2.660709270736881949e-03
C 1.719566667646542157e+01 -2.830767604226110024e+01 -2.820709270736881935e-03
C 1.646264536435371184e+01 -2.946965427449698183e+01 -2.540709270736881634e-03
C 1.509199499321483273e+01 -2.940557589907391645e+01 -2.700709270736881620e-03
C 1.443963827720918758e+01 -2.817040985016294385e+01 -2.740709270736881725e-03
O 1.856643032458134712e+01 -2.832753639230617893e+01 -3.550709270736881681e-03
O 1.432471913383431250e+01 -3.052540558813912597e+01 -3.270709270736881814e-03
H 1.732585872596272125e+01 -2.638766498313990994e+01 -2.720709270736881673e-03
H 1.696633337106341344e+01 -3.042533158467903576e+01 -2.610709270736881818e-03
H 1.347143628543467919e+01 -2.831799450256240291e+01 -2.750709270736881751e-03
C 1.369697286607577524e+01 -3.279814013115449001e+01 -4.370709270736882097e-03
C 2.084664557755851888e+01 -2.911066178053614095e+01 1.829290729263118552e-03
C 1.422320158994596895e+01 -3.422618347681103756e+01 -3.810709270736881930e-03
C 2.175405605539154053e+01 -3.035193663274204567e+01 -5.890709270736881747e-03
C 1.306503630171663133e+01 -3.521248634005368672e+01 -9.807092707368818794e-04
C 2.324327465318434349e+01 -2.997174507340906757e+01 -6.200709270736881260e-03
C 1.357954240953111125e+01 -3.664366036819338746e+01 -4.290709270736881888e-03
C 2.415561914595017967e+01 -3.120447187340159445e+01 1.199290729263118201e-03
C 1.241891734844365303e+01 -3.762767060903223637e+01 -6.907092707368819862e-04
C 2.564017681064649068e+01 -3.081644428173904160e+01 -7.590709270736881870e-03
C 1.293663364686350015e+01 -3.905823736764592269e+01 -4.780709270736881872e-03
C 2.654601919148956313e+01 -3.204880251621008824e+01 1.579290729263118330e-03
C 1.178798309541761924e+01 -4.004815727165991746e+01 -2.370709270736882056e-03
C 2.802354610632358600e+01 -3.167528339643032353e+01 -3.370709270736882077e-03
C 1.483818401112287866e+01 -3.180624595957151257e+01 -1.870709270736881829e-03
C 1.935520265568536757e+01 -2.946862745220663271e+01 -1.370709270736881818e-03
C 1.633521631504064686e+01 -2.279527450844446790e+01 -2.560709270736881687e-03
C 1.602461746468068426e+01 -2.406471823238620544e+01 -2.290709270736881846e-03
C 1.469516002032620250e+01 -2.424440270069231929e+01 3.839290729263118186e-03
C 1.515328821867150566e+01 -2.212714898295302746e+01 1.429290729263118370e-03
N 1.410433962122362495e+01 -2.299401623779203874e+01 -3.060070927073688107e-02
C 1.512796056214770068e+01 -2.067598789667933445e+01 -2.970709270736881895e-03
C 1.398582811042772711e+01 -1.997655305201680775e+01 -7.580709270736881410e-03
N 1.273190346004285267e+01 -2.049396015716436992e+01 9.139290729263118210e-03
C 1.191375577355021065e+01 -1.940936610334205170e+01 -8.070709270736883129e-03
C 1.395085657509645394e+01 -1.859310985556218299e+01 -4.840709270736882029e-03
C 1.263750674225622284e+01 -1.823402663863531714e+01 -4.640709270736882372e-03
C 1.059840887859661862e+01 -1.943208724186823844e+01 -2.150709270736881912e-03
C 9.816762483140307083e+00 -2.065439785156208785e+01 1.459290729263118015e-03
N 1.031174211931345219e+01 -2.191365184856742587e+01 -2.960070927073688019e-02
C 8.049967492294811677e+00 -2.194918737269023978e+01 -2.330709270736881951e-03
C 8.440073062506909807e+00 -2.064240458611494233e+01 -2.680709270736882002e-03
C 1.045900885563061067e+01 -2.481182608261107703e+01 -7.770709270736881474e-03
N 1.174516184075622149e+01 -2.433603887823030476e+01 9.359290729263117919e-03
C 1.255026719393231538e+01 -2.545615229074136465e+01 -7.720709270736881777e-03
C 1.172115911460352322e+01 -2.656920276331290509e+01 -4.340709270736881585e-03
C 1.045455917908389409e+01 -2.617505287844462813e+01 -4.360709270736881638e-03
C 1.412078671899915072e+01 -2.549677646807276332e+01 -3.280709270736881841e-03
C 9.216232680221246198e+00 -2.405235457430091373e+01 -3.430709270736881800e-03
C 9.206836281010742695e+00 -2.271269681506467464e+01 3.519290729263118214e-03
H 1.737116724510649135e+01 -2.245539683001338460e+01 -3.480709270736881931e-03
H 1.673234269006816177e+01 -2.469906534387190078e+01 -3.590709270736881786e-03
C 1.641477573940452928e+01 -1.997958985756558903e+01 -2.570709270736881713e-03
H 1.479041237619740201e+01 -1.791524996470143449e+01 -1.710709270736881843e-03
H 1.225783586522745949e+01 -1.721455183206273176e+01 -1.680709270736881764e-03
H 7.029446664953889368e+00 -2.229980356265215136e+01 -3.450709270736881853e-03
H 7.785279719779252261e+00 -1.977385427247759608e+01 -3.400709270736881722e-03
H 1.182643493809622903e+01 -2.757078020709243305e+01 -1.490709270736881916e-03
H 9.626881905478358092e+00 -2.689247747054954729e+01 -1.720709270736881869e-03
C 7.952850519426396758e+00 -2.479150784513540628e+01 -3.010709270736882000e-03
C 6.913612667290844449e+00 -2.540916309419323582e+01 -2.700709270736881620e-03
C 1.748019611487016789e+01 -1.941169157658328359e+01 -2.220709270736882096e-03
Zn 1.225053313698501789e+01 -2.243774403015004992e+01 3.471929072926311505e-02
H 1.545900604823912872e+01 -3.195818157827507022e+01 9.061192907292631160e-01
H 1.546319518045814512e+01 -3.195919630545590806e+01 -9.070607092707368979e-01
H 1.307741641560120804e+01 -3.263103953996653672e+01 8.996692907292630492e-01
H 1.308720904854663658e+01 -3.263351672385073243e+01 -9.147207092707368981e-01
H 1.484548770035465992e+01 -3.438920404880245485e+01 9.006392907292630756e-01
H 1.483916679039533193e+01 -3.438764818978378202e+01 -9.123307092707368948e-01
H 1.244209926686063383e+01 -3.504586392167965414e+01 -9.045907092707369257e-01
H 1.245141097347593373e+01 -3.504833062391351461e+01 9.087592907292630917e-01
H 1.420228136381209083e+01 -3.681055585081956139e+01 8.992792907292630478e-01
H 1.419349911743135451e+01 -3.680825788465185155e+01 -9.137007092707368772e-01
H 1.179628241934830868e+01 -3.746289039914513808e+01 -9.047307092707369547e-01
H 1.180452435023378754e+01 -3.746523148335526798e+01 9.085492907292630482e-01
H 1.355848332871885020e+01 -3.922866993870087526e+01 8.978092907292630764e-01
H 1.354577808053112875e+01 -3.922430883007019986e+01 -9.158607092707369279e-01
H 1.117213516424918396e+01 -3.991065845211753782e+01 9.089392907292630497e-01
H 1.219121100941527658e+01 -4.108033052338324609e+01 -1.495070927073688209e-02
H 1.115755534766990920e+01 -3.989507099085809472e+01 -9.012007092707369216e-01
H 1.913109028518374544e+01 -3.006761135982698008e+01 -9.075407092707369339e-01
H 1.913425651489122004e+01 -3.005943294986908754e+01 9.102792907292630575e-01
H 2.106997759887557820e+01 -2.850479827589632364e+01 -8.999007092707369537e-01
H 2.106075491581484727e+01 -2.853057962801682734e+01 9.206392907292630934e-01
H 2.153692873390269114e+01 -3.096024216523628070e+01 8.963992907292630541e-01
H 2.154331523574259677e+01 -3.094158700256614480e+01 -9.205907092707369399e-01
H 2.346225650932559148e+01 -2.936344960188150566e+01 8.958092907292630747e-01
H 2.345538805447115038e+01 -2.938349613843804420e+01 -9.214007092707369173e-01
H 2.394022531707278745e+01 -3.181501157316036910e+01 -8.999907092707368772e-01
H 2.394798078064220803e+01 -3.179354485508742556e+01 9.169992907292631168e-01
H 2.586101796422810395e+01 -3.020944773785699766e+01 8.945592907292631013e-01
H 2.585359476727079198e+01 -3.023092440070142572e+01 -9.235407092707369481e-01
H 2.633878278573271814e+01 -3.266291803028620677e+01 -8.984407092707369369e-01
H 2.634614691857380109e+01 -3.263637589496330804e+01 9.189092907292630841e-01
H 2.827655856185000260e+01 -3.110576891000483357e+01 -9.200807092707369295e-01
H 2.864269673632271918e+01 -3.259772971019153687e+01 2.214929072926311721e-02
H 2.826749973559897100e+01 -3.106326873862924032e+01 8.881092907292630345e-01
C 2.649042317459295504e+01 -1.576330148621952709e+01 -2.930709270736881790e-03
C 2.785507102486283060e+01 -1.517248384967353658e+01 -2.660709270736881949e-03
C 2.904572219795912957e+01 -1.591733323646553266e+01 -2.820709270736881935e-03
C 2.899189623627293244e+01 -1.729014656028219576e+01 -2.540709270736881634e-03
C 2.777283900744856027e+01 -1.791997824490203328e+01 -2.700709270736881620e-03
C 2.659029849460279493e+01 -1.717647142665590110e+01 -2.740709270736881725e-03
O 3.024276851483429596e+01 -1.524915098007466696e+01 -3.550709270736881681e-03
O 2.766827346604710058e+01 -1.927341713323478700e+01 -3.270709270736881814e-03
H 2.819846629063395937e+01 -1.418945885897086967e+01 -2.720709270736881673e-03
H 2.990594150075609292e+01 -1.786594338536538373e+01 -2.610709270736881818e-03
H 2.582560329993110315e+01 -1.778838448072977130e+01 -2.750709270736881751e-03
C 2.826099652254501748e+01 -2.155553611742377740e+01 -4.370709270736882097e-03
C 3.260905554412426710e+01 -1.478724983414177530e+01 1.829290729263118552e-03
C 2.943074563844594493e+01 -2.252914357053257532e+01 -3.810709270736881930e-03
C 3.401553349569079643e+01 -1.540852015031435762e+01 -5.890709270736881747e-03
C 2.892089650867933415e+01 -2.396238955004070448e+01 -9.807092707368818794e-04
C 3.511513885350110797e+01 -1.433465530273116784e+01 -6.200709270736881260e-03
C 3.008205888251878690e+01 -2.494456956173895179e+01 -4.290709270736881888e-03
C 3.652161576123542375e+01 -1.494605578106768284e+01 1.199290729263118201e-03
C 2.956893321576760769e+01 -2.637705995843317197e+01 -6.907092707368819862e-04
C 3.761326661641405167e+01 -1.386773519697046098e+01 -7.590709270736881870e-03
C 3.073257206145927611e+01 -2.735710896399225689e+01 -4.780709270736881872e-03
C 3.901392824728424102e+01 -1.448206754416378317e+01 1.579290729263118330e-03
C 3.023277145584314241e+01 -2.878873002430316674e+01 -2.370709270736882056e-03
C 4.010674453041588094e+01 -1.341982704021830131e+01 -3.370709270736882077e-03
C 2.875336727944624826e+01 -2.012592499444364336e+01 -1.870709270736881829e-03
C 3.149641092132287667e+01 -1.584297866042775205e+01 -1.370709270736881818e-03
C 2.554434955936146068e+01 -1.157367865303241672e+01 -2.560709270736881687e-03
C 2.591008492653435979e+01 -1.282834859182066012e+01 -2.290709270736881846e-03
C 2.484858324062609825e+01 -1.364868862821649742e+01 3.839290729263118186e-03
C 2.418670703971347535e+01 -1.158602902322457062e+01 1.429290729263118370e-03
N 2.371172453447906747e+01 -1.286123238634797517e+01 -3.060070927073688107e-02
C 2.343919210260870045e+01 -1.034195048579003284e+01 -2.970709270736881895e-03
C 2.210035896260132660e+01 -1.030728836788024694e+01 -7.580709270736881410e-03
N 2.127313191351029431e+01 -1.138233839022904448e+01 9.139290729263118210e-03
C 2.002229820604903665e+01 -1.085212623007169164e+01 -8.070709270736883129e-03
C 2.137835112636779300e+01 -9.126677182723440751e+00 -4.840709270736882029e-03
C 2.006141519860867106e+01 -9.472376911212251116e+00 -4.640709270736882372e-03
C 1.889453494949333745e+01 -1.152947676071507388e+01 -2.150709270736881912e-03
C 1.882876461909855692e+01 -1.297885199775334897e+01 1.459290729263118015e-03
N 1.988705655688315588e+01 -1.382190813089048831e+01 -2.960070927073688019e-02
C 1.794607003431133663e+01 -1.498357011102696035e+01 -2.330709270736881951e-03
C 1.763051997498518375e+01 -1.365681023551848305e+01 -2.680709270736882002e-03
C 2.146368040868805593e+01 -1.625816727400721717e+01 -7.770709270736881474e-03
N 2.233962796476964030e+01 -1.520304697565508434e+01 9.359290729263117919e-03
C 2.359692635959851259e+01 -1.577054096942129391e+01 -7.720709270736881777e-03
C 2.343542293670262922e+01 -1.714902499402692015e+01 -4.340709270736881585e-03
C 2.214144027367675704e+01 -1.744098114859209403e+01 -4.360709270736881638e-03
C 2.497734825411155768e+01 -1.502046277646471140e+01 -3.280709270736881841e-03
C 2.000766891541040593e+01 -1.622183374206481687e+01 -3.430709270736881800e-03
C 1.932970251537189199e+01 -1.506635428979454439e+01 3.519290729263118214e-03
H 2.627157054265705938e+01 -1.076136048429889946e+01 -3.480709270736881931e-03
H 2.684016650636183243e+01 -1.302384669249081384e+01 -3.590709270736881786e-03
C 2.420540771653161016e+01 -9.095444504143449294e+00 -2.570709270736881713e-03
H 2.176649783258542925e+01 -8.119855396481010956e+00 -1.710709270736881843e-03
H 1.922287317073834956e+01 -8.779321268716540061e+00 -1.680709270736881764e-03
H 1.723758116772394544e+01 -1.579747305218254638e+01 -3.450709270736881853e-03
H 1.662917714913542255e+01 -1.323202027080742837e+01 -3.400709270736881722e-03
H 2.402738319614140039e+01 -1.796377859245112063e+01 -1.490709270736881916e-03
H 2.178336302465178420e+01 -1.847612770745741173e+01 -1.720709270736881869e-03
C 1.928312450489122654e+01 -1.749365033229527100e+01 -3.010709270736882000e-03
C 1.869194574889638716e+01 -1.854817439482793162e+01 -2.700709270736881620e-03
C 2.484413968690325447e+01 -8.070919978314433862e+00 -2.220709270736882096e-03
Zn 2.182814492160711950e+01 -1.330638976523006178e+01 3.471929072926311505e-02
H 2.936698274416990273e+01 -1.994709408142250595e+01 9.061192907292631160e-01
H 2.937111800268180417e+01 -1.994587829482951946e+01 -9.070607092707368979e-01
H 2.764089460176155200e+01 -2.172060098570489828e+01 8.996692907292630492e-01
H 2.765061386260433096e+01 -2.171784997340574463e+01 -9.147207092707368981e-01
H 3.005117150447779295e+01 -2.235918047201226955e+01 9.006392907292630756e-01
H 3.004491950636864317e+01 -2.236099351355705167e+01 -9.123307092707368948e-01
H 2.829810600234888085e+01 -2.412955882031680233e+01 -9.045907092707369257e-01
H 2.830740352794723691e+01 -2.412703919380723150e+01 9.087592907292630917e-01
H 3.070481437816536285e+01 -2.477773581232960609e+01 8.992792907292630478e-01
H 3.069605974661349279e+01 -2.478013683844167758e+01 -9.137007092707368772e-01
H 2.894732544494396009e+01 -2.654567357517768045e+01 -9.047307092707369547e-01
H 2.895563370857209406e+01 -2.654358004813332883e+01 9.085492907292630482e-01
H 3.135632596880876122e+01 -2.719378305923047279e+01 8.978092907292630764e-01
H 3.134314234680146782e+01 -2.719635885246149698e+01 -9.158607092707369279e-01
H 2.963068209281198762e+01 -2.897757651917331145e+01 9.089392907292630497e-01
H 3.109806369874178245e+01 -2.948100432440354268e+01 -1.495070927073688209e-02
H 2.961026187064209836e+01 -2.897136729003177180e+01 -9.012007092707369216e-01
H 3.160181586897629558e+01 -1.647377012613586089e+01 -9.075407092707369339e-01
H 3.160046869935823111e+01 -1.646510430049602292e+01 9.102792907292630575e-01
H 3.249953499574345983e+01 -1.415089063723929286e+01 -8.999007092707369537e-01